   8   8   0   0
  0.1915929E+02  0.6532548E-09  0.6532548E-09  0.6532548E-09  0.5000000E-15
  1.000000000000000E-004
  CAR 
 unknown system                          
     12.16251381    -11.61632527  301      4.65249926      1.00000000
    -11.616  0.0000E+00  0.0000E+00
    -11.537  0.0000E+00  0.0000E+00
    -11.458  0.0000E+00  0.0000E+00
    -11.379  0.0000E+00  0.0000E+00
    -11.299  0.0000E+00  0.0000E+00
    -11.220  0.0000E+00  0.0000E+00
    -11.141  0.0000E+00  0.0000E+00
    -11.061  0.0000E+00  0.0000E+00
    -10.982  0.0000E+00  0.0000E+00
    -10.903  0.0000E+00  0.0000E+00
    -10.824  0.1064E-17  0.8431E-19
    -10.744  0.2031E-10  0.1610E-11
    -10.665  0.2664E-05  0.2112E-06
    -10.586  0.4137E-02  0.3281E-03
    -10.507  0.1617E+00  0.1314E-01
    -10.427  0.6370E+00  0.6363E-01
    -10.348  0.1018E+01  0.1443E+00
    -10.269  0.1324E+01  0.2493E+00
    -10.190  0.1616E+01  0.3774E+00
    -10.110  0.1922E+01  0.5297E+00
    -10.031  0.2267E+01  0.7095E+00
     -9.952  0.2725E+01  0.9254E+00
     -9.873  0.3481E+01  0.1201E+01
     -9.793  0.3814E+01  0.1504E+01
     -9.714  0.3305E+01  0.1766E+01
     -9.635  0.2506E+01  0.1964E+01
     -9.555  0.2262E+01  0.2143E+01
     -9.476  0.4387E+01  0.2491E+01
     -9.397  0.5892E+01  0.2958E+01
     -9.318  0.4359E+01  0.3304E+01
     -9.238  0.5608E+01  0.3748E+01
     -9.159  0.1008E+02  0.4548E+01
     -9.080  0.1079E+02  0.5403E+01
     -9.001  0.1134E+02  0.6301E+01
     -8.921  0.1318E+02  0.7346E+01
     -8.842  0.7776E+01  0.7962E+01
     -8.763  0.4763E+00  0.8000E+01
     -8.684  0.8116E-03  0.8000E+01
     -8.604  0.1795E-07  0.8000E+01
     -8.525  0.3617E-14  0.8000E+01
     -8.446  0.0000E+00  0.8000E+01
     -8.367  0.0000E+00  0.8000E+01
     -8.287  0.0000E+00  0.8000E+01
     -8.208  0.0000E+00  0.8000E+01
     -8.129  0.0000E+00  0.8000E+01
     -8.049  0.0000E+00  0.8000E+01
     -7.970  0.0000E+00  0.8000E+01
     -7.891  0.0000E+00  0.8000E+01
     -7.812  0.0000E+00  0.8000E+01
     -7.732  0.0000E+00  0.8000E+01
     -7.653  0.0000E+00  0.8000E+01
     -7.574  0.0000E+00  0.8000E+01
     -7.495  0.0000E+00  0.8000E+01
     -7.415  0.0000E+00  0.8000E+01
     -7.336  0.0000E+00  0.8000E+01
     -7.257  0.0000E+00  0.8000E+01
     -7.178  0.0000E+00  0.8000E+01
     -7.098  0.0000E+00  0.8000E+01
     -7.019  0.0000E+00  0.8000E+01
     -6.940  0.0000E+00  0.8000E+01
     -6.861  0.0000E+00  0.8000E+01
     -6.781  0.0000E+00  0.8000E+01
     -6.702  0.0000E+00  0.8000E+01
     -6.623  0.0000E+00  0.8000E+01
     -6.544  0.0000E+00  0.8000E+01
     -6.464  0.0000E+00  0.8000E+01
     -6.385  0.0000E+00  0.8000E+01
     -6.306  0.0000E+00  0.8000E+01
     -6.226  0.0000E+00  0.8000E+01
     -6.147  0.0000E+00  0.8000E+01
     -6.068  0.0000E+00  0.8000E+01
     -5.989  0.0000E+00  0.8000E+01
     -5.909  0.0000E+00  0.8000E+01
     -5.830  0.0000E+00  0.8000E+01
     -5.751  0.0000E+00  0.8000E+01
     -5.672  0.0000E+00  0.8000E+01
     -5.592  0.0000E+00  0.8000E+01
     -5.513  0.0000E+00  0.8000E+01
     -5.434  0.0000E+00  0.8000E+01
     -5.355  0.0000E+00  0.8000E+01
     -5.275  0.0000E+00  0.8000E+01
     -5.196  0.0000E+00  0.8000E+01
     -5.117  0.0000E+00  0.8000E+01
     -5.038  0.0000E+00  0.8000E+01
     -4.958  0.0000E+00  0.8000E+01
     -4.879  0.0000E+00  0.8000E+01
     -4.800  0.0000E+00  0.8000E+01
     -4.720  0.0000E+00  0.8000E+01
     -4.641  0.0000E+00  0.8000E+01
     -4.562  0.0000E+00  0.8000E+01
     -4.483  0.0000E+00  0.8000E+01
     -4.403  0.0000E+00  0.8000E+01
     -4.324  0.0000E+00  0.8000E+01
     -4.245  0.0000E+00  0.8000E+01
     -4.166  0.0000E+00  0.8000E+01
     -4.086  0.0000E+00  0.8000E+01
     -4.007  0.0000E+00  0.8000E+01
     -3.928  0.3500E-12  0.8000E+01
     -3.849  0.1546E-06  0.8000E+01
     -3.769  0.7314E-03  0.8000E+01
     -3.690  0.6804E-01  0.8005E+01
     -3.611  0.4458E+00  0.8041E+01
     -3.532  0.9218E+00  0.8114E+01
     -3.452  0.1497E+01  0.8233E+01
     -3.373  0.2397E+01  0.8423E+01
     -3.294  0.3985E+01  0.8738E+01
     -3.214  0.6063E+01  0.9219E+01
     -3.135  0.4727E+01  0.9594E+01
     -3.056  0.3091E+01  0.9839E+01
     -2.977  0.2590E+01  0.1004E+02
     -2.897  0.1929E+01  0.1020E+02
     -2.818  0.1764E+01  0.1034E+02
     -2.739  0.2250E+01  0.1052E+02
     -2.660  0.2774E+01  0.1073E+02
     -2.580  0.3221E+01  0.1099E+02
     -2.501  0.3538E+01  0.1127E+02
     -2.422  0.3716E+01  0.1157E+02
     -2.343  0.3586E+01  0.1185E+02
     -2.263  0.1638E+01  0.1198E+02
     -2.184  0.2534E+00  0.1200E+02
     -2.105  0.7848E-02  0.1200E+02
     -2.026  0.7897E-05  0.1200E+02
     -1.946  0.8138E-07  0.1200E+02
     -1.867  0.7958E-03  0.1200E+02
     -1.788  0.1175E+00  0.1201E+02
     -1.708  0.8631E+00  0.1208E+02
     -1.629  0.1682E+01  0.1221E+02
     -1.550  0.2569E+01  0.1241E+02
     -1.471  0.3172E+01  0.1267E+02
     -1.391  0.3558E+01  0.1295E+02
     -1.312  0.4176E+01  0.1328E+02
     -1.233  0.5041E+01  0.1368E+02
     -1.154  0.4971E+01  0.1407E+02
     -1.074  0.4237E+01  0.1441E+02
     -0.995  0.3146E+01  0.1466E+02
     -0.916  0.3546E+01  0.1494E+02
     -0.837  0.5629E+01  0.1539E+02
     -0.757  0.6345E+01  0.1589E+02
     -0.678  0.5230E+01  0.1630E+02
     -0.599  0.4704E+01  0.1668E+02
     -0.520  0.4358E+01  0.1702E+02
     -0.440  0.4604E+01  0.1739E+02
     -0.361  0.6225E+01  0.1788E+02
     -0.282  0.6220E+01  0.1837E+02
     -0.202  0.5811E+01  0.1883E+02
     -0.123  0.6519E+01  0.1935E+02
     -0.044  0.7768E+01  0.1997E+02
      0.035  0.8543E+01  0.2064E+02
      0.115  0.1036E+02  0.2146E+02
      0.194  0.1043E+02  0.2229E+02
      0.273  0.8346E+01  0.2295E+02
      0.352  0.1163E+02  0.2387E+02
      0.432  0.1646E+02  0.2518E+02
      0.511  0.1704E+02  0.2653E+02
      0.590  0.1294E+02  0.2755E+02
      0.669  0.1739E+02  0.2893E+02
      0.749  0.2007E+02  0.3052E+02
      0.828  0.1380E+02  0.3162E+02
      0.907  0.4546E+01  0.3198E+02
      0.986  0.2678E+00  0.3200E+02
      1.066  0.6782E-03  0.3200E+02
      1.145  0.2840E-07  0.3200E+02
      1.224  0.1212E-13  0.3200E+02
      1.304  0.0000E+00  0.3200E+02
      1.383  0.0000E+00  0.3200E+02
      1.462  0.0000E+00  0.3200E+02
      1.541  0.0000E+00  0.3200E+02
      1.621  0.0000E+00  0.3200E+02
      1.700  0.0000E+00  0.3200E+02
      1.779  0.1617E-12  0.3200E+02
      1.858  0.1267E-06  0.3200E+02
      1.938  0.1026E-02  0.3200E+02
      2.017  0.1495E+00  0.3201E+02
      2.096  0.1340E+01  0.3212E+02
      2.175  0.4279E+01  0.3246E+02
      2.255  0.1722E+02  0.3382E+02
      2.334  0.3138E+02  0.3631E+02
      2.413  0.2913E+02  0.3862E+02
      2.492  0.1654E+02  0.3993E+02
      2.572  0.6353E+01  0.4043E+02
      2.651  0.7757E+01  0.4105E+02
      2.730  0.1201E+02  0.4200E+02
      2.810  0.1607E+02  0.4327E+02
      2.889  0.1222E+02  0.4424E+02
      2.968  0.9013E+01  0.4496E+02
      3.047  0.6601E+01  0.4548E+02
      3.127  0.8539E+01  0.4616E+02
      3.206  0.1163E+02  0.4708E+02
      3.285  0.8667E+01  0.4777E+02
      3.364  0.7132E+01  0.4833E+02
      3.444  0.6199E+01  0.4882E+02
      3.523  0.6711E+01  0.4935E+02
      3.602  0.8525E+01  0.5003E+02
      3.681  0.9322E+01  0.5077E+02
      3.761  0.6680E+01  0.5130E+02
      3.840  0.4177E+01  0.5163E+02
      3.919  0.2641E+01  0.5184E+02
      3.998  0.1452E+01  0.5195E+02
      4.078  0.5088E+00  0.5199E+02
      4.157  0.7103E-01  0.5200E+02
      4.236  0.1306E-02  0.5200E+02
      4.315  0.8143E-06  0.5200E+02
      4.395  0.6920E-11  0.5200E+02
      4.474  0.4195E-18  0.5200E+02
      4.553  0.4435E-17  0.5200E+02
      4.633  0.1432E-10  0.5200E+02
      4.712  0.4844E-06  0.5200E+02
      4.791  0.2740E-03  0.5200E+02
      4.870  0.5540E-02  0.5200E+02
      4.950  0.1753E-01  0.5200E+02
      5.029  0.2993E-01  0.5200E+02
      5.108  0.4392E-01  0.5201E+02
      5.187  0.6034E-01  0.5201E+02
      5.267  0.7941E-01  0.5202E+02
      5.346  0.1022E+00  0.5203E+02
      5.425  0.1307E+00  0.5204E+02
      5.504  0.1662E+00  0.5205E+02
      5.584  0.2111E+00  0.5207E+02
      5.663  0.2734E+00  0.5209E+02
      5.742  0.4591E+00  0.5213E+02
      5.821  0.1168E+01  0.5222E+02
      5.901  0.2192E+01  0.5239E+02
      5.980  0.2868E+01  0.5262E+02
      6.059  0.3387E+01  0.5289E+02
      6.139  0.3332E+01  0.5315E+02
      6.218  0.3284E+01  0.5341E+02
      6.297  0.3827E+01  0.5372E+02
      6.376  0.4656E+01  0.5408E+02
      6.456  0.4819E+01  0.5447E+02
      6.535  0.4525E+01  0.5482E+02
      6.614  0.3922E+01  0.5514E+02
      6.693  0.3827E+01  0.5544E+02
      6.773  0.3424E+01  0.5571E+02
      6.852  0.3363E+01  0.5598E+02
      6.931  0.3337E+01  0.5624E+02
      7.010  0.2693E+01  0.5645E+02
      7.090  0.2068E+01  0.5662E+02
      7.169  0.1932E+01  0.5677E+02
      7.248  0.2039E+01  0.5693E+02
      7.327  0.2274E+01  0.5711E+02
      7.407  0.2569E+01  0.5732E+02
      7.486  0.2973E+01  0.5755E+02
      7.565  0.3646E+01  0.5784E+02
      7.645  0.4724E+01  0.5822E+02
      7.724  0.4877E+01  0.5860E+02
      7.803  0.4408E+01  0.5895E+02
      7.882  0.4371E+01  0.5930E+02
      7.962  0.4108E+01  0.5962E+02
      8.041  0.3956E+01  0.5994E+02
      8.120  0.3678E+01  0.6023E+02
      8.199  0.3552E+01  0.6051E+02
      8.279  0.3819E+01  0.6081E+02
      8.358  0.3724E+01  0.6111E+02
      8.437  0.3526E+01  0.6139E+02
      8.516  0.3869E+01  0.6169E+02
      8.596  0.4670E+01  0.6207E+02
      8.675  0.5490E+01  0.6250E+02
      8.754  0.5205E+01  0.6291E+02
      8.833  0.4961E+01  0.6331E+02
      8.913  0.5112E+01  0.6371E+02
      8.992  0.5106E+01  0.6412E+02
      9.071  0.4548E+01  0.6448E+02
      9.151  0.5162E+01  0.6489E+02
      9.230  0.6130E+01  0.6537E+02
      9.309  0.6310E+01  0.6587E+02
      9.388  0.6017E+01  0.6635E+02
      9.468  0.5825E+01  0.6681E+02
      9.547  0.6315E+01  0.6731E+02
      9.626  0.6480E+01  0.6782E+02
      9.705  0.5454E+01  0.6826E+02
      9.785  0.5255E+01  0.6867E+02
      9.864  0.6626E+01  0.6920E+02
      9.943  0.7562E+01  0.6980E+02
     10.022  0.6289E+01  0.7030E+02
     10.102  0.4832E+01  0.7068E+02
     10.181  0.3841E+01  0.7098E+02
     10.260  0.3519E+01  0.7126E+02
     10.339  0.3247E+01  0.7152E+02
     10.419  0.2812E+01  0.7174E+02
     10.498  0.1929E+01  0.7190E+02
     10.577  0.6463E+00  0.7195E+02
     10.657  0.2129E+00  0.7196E+02
     10.736  0.1496E+00  0.7198E+02
     10.815  0.1147E+00  0.7198E+02
     10.894  0.8390E-01  0.7199E+02
     10.974  0.5865E-01  0.7200E+02
     11.053  0.3690E-01  0.7200E+02
     11.132  0.1155E-01  0.7200E+02
     11.211  0.3879E-03  0.7200E+02
     11.291  0.3299E-06  0.7200E+02
     11.370  0.3253E-11  0.7200E+02
     11.449  0.2397E-18  0.7200E+02
     11.528  0.0000E+00  0.7200E+02
     11.608  0.0000E+00  0.7200E+02
     11.687  0.0000E+00  0.7200E+02
     11.766  0.0000E+00  0.7200E+02
     11.845  0.0000E+00  0.7200E+02
     11.925  0.0000E+00  0.7200E+02
     12.004  0.0000E+00  0.7200E+02
     12.083  0.0000E+00  0.7200E+02
     12.163  0.0000E+00  0.7200E+02
